/*--------------------------------*- C++ -*----------------------------------*\
  =========                 |
  \\      /  F ield         | OpenFOAM: The Open Source CFD Toolbox
   \\    /   O peration     | Website:  https://openfoam.org
    \\  /    A nd           | Version:  7
     \\/     M anipulation  |
\*---------------------------------------------------------------------------*/
FoamFile
{
    version     2.0;
    format      ascii;
    class       volVectorField;
    location    "0";
    object      U;
}
// * * * * * * * * * * * * * * * * * * * * * * * * * * * * * * * * * * * * * //

dimensions      [0 1 -1 0 0 0 0];

internalField   uniform (0 0 0);

boundaryField
{
    cube
    {
        type            fixedValue;
        value           uniform (0 0 0);
    }
    topAndBottom
    {
        type            fixedValue;
        value           uniform (0 0 0);
    }
    sides
    {
        type            slip;
    }
    inlet
    {
        type            fixedValue;
        value           nonuniform List<vector> 
3600
(
(0.362717 0.00365109 0.00660729)
(0.362717 0.00365109 0.00660729)
(0.379362 -0.00389196 0.00223016)
(0.379362 -0.00389196 0.00223016)
(0.379451 -0.00112341 -0.00104893)
(0.379451 -0.00112341 -0.00104893)
(0.387107 -0.00685716 -0.0125389)
(0.369938 0.00154017 0.0022356)
(0.369938 0.00154017 0.0022356)
(0.38601 -6.29791e-05 -0.0100393)
(0.375926 -0.0015113 -0.000729688)
(0.375926 -0.0015113 -0.000729688)
(0.381154 -0.00295509 -0.00437538)
(0.378011 -0.00328935 -0.00362636)
(0.372315 -0.000818828 0.000708043)
(0.368504 0.00260428 0.00205441)
(0.369325 0.00443051 0.00582112)
(0.374838 0.00427863 0.0068822)
(0.377338 0.00374037 0.00468964)
(0.377338 0.00374037 0.00468964)
(0.38318 0.0019115 -0.00210818)
(0.387509 -0.000646396 -0.0101061)
(0.387509 -0.000646396 -0.0101061)
(0.388728 -0.00216782 -0.0138455)
(0.386773 -0.0027633 -0.0150791)
(0.386773 -0.0027633 -0.0150791)
(0.383807 -0.00302522 -0.0118621)
(0.380114 -0.00281099 -0.00707682)
(0.380116 -0.00253514 -0.00652745)
(0.380116 -0.00253514 -0.00652745)
(0.379007 -0.00225621 -0.00535797)
(0.378008 -0.0020095 -0.00433431)
(0.376419 -0.00232956 -0.00204336)
(0.376488 -0.00240954 -0.00125519)
(0.376488 -0.00240954 -0.00125519)
(0.375482 -0.00248931 0.000189442)
(0.37528 -0.00262411 0.00106365)
(0.373862 -0.00259433 0.00265987)
(0.373692 -0.00261677 0.0030546)
(0.373043 -0.0025814 0.00403284)
(0.652423 0.00298869 0.00652124)
(0.652423 0.00298869 0.00652124)
(0.668595 -0.00336753 0.00296668)
(0.668595 -0.00336753 0.00296668)
(0.669217 -0.000679601 -0.000866968)
(0.669217 -0.000679601 -0.000866968)
(0.677784 -0.0067184 -0.0133212)
(0.66008 0.00115292 0.00173668)
(0.66008 0.00115292 0.00173668)
(0.676121 -0.000289172 -0.0103751)
(0.665207 -0.0020423 -0.000509529)
(0.665207 -0.0020423 -0.000509529)
(0.670523 -0.00331098 -0.00401546)
(0.667818 -0.00351987 -0.00379443)
(0.66235 -0.000689886 0.00026522)
(0.657905 0.00248769 0.00230072)
(0.658571 0.00451899 0.00661245)
(0.664614 0.00455918 0.00717685)
(0.667514 0.00398327 0.00479897)
(0.667514 0.00398327 0.00479897)
(0.673108 0.00209948 -0.00188504)
(0.677351 -0.000155793 -0.00993775)
(0.677351 -0.000155793 -0.00993775)
(0.678806 -0.00199887 -0.0138253)
(0.677034 -0.00286827 -0.0154043)
(0.677034 -0.00286827 -0.0154043)
(0.673834 -0.00334587 -0.0118239)
(0.670206 -0.00351883 -0.00713602)
(0.670156 -0.00318339 -0.00657347)
(0.670156 -0.00318339 -0.00657347)
(0.669231 -0.00301086 -0.00552587)
(0.667902 -0.002881 -0.00427328)
(0.666171 -0.00268429 -0.00178603)
(0.666735 -0.00282134 -0.00145304)
(0.666735 -0.00282134 -0.00145304)
(0.665756 -0.00281422 -1.07053e-05)
(0.6652 -0.00281397 0.00117649)
(0.66383 -0.00294184 0.00269396)
(0.663552 -0.00302296 0.00323714)
(0.663081 -0.00309618 0.00422636)
(0.74099 0.00221405 0.00644921)
(0.74099 0.00221405 0.00644921)
(0.756501 -0.00267787 0.00400428)
(0.756501 -0.00267787 0.00400428)
(0.757919 0.000580404 -0.000635063)
(0.757919 0.000580404 -0.000635063)
(0.767651 -0.00626113 -0.0143762)
(0.748855 0.000389975 0.00151175)
(0.748855 0.000389975 0.00151175)
(0.764191 -0.000274039 -0.00990197)
(0.753101 -0.00253128 -9.09792e-05)
(0.753101 -0.00253128 -9.09792e-05)
(0.759139 -0.00350268 -0.00421328)
(0.756268 -0.00324795 -0.003714)
(0.751448 -0.000976344 -0.000345812)
(0.745704 0.00275697 0.00295601)
(0.746741 0.00464949 0.00740892)
(0.753601 0.00473081 0.00727888)
(0.756695 0.00411512 0.0048822)
(0.756695 0.00411512 0.0048822)
(0.761802 0.00259071 -0.0012695)
(0.765799 0.000565638 -0.00949321)
(0.765799 0.000565638 -0.00949321)
(0.76786 -0.00153745 -0.0138549)
(0.76579 -0.00286564 -0.0151924)
(0.76579 -0.00286564 -0.0151924)
(0.7632 -0.00358669 -0.0121215)
(0.75919 -0.00391605 -0.00716415)
(0.758875 -0.00401006 -0.00640824)
(0.758875 -0.00401006 -0.00640824)
(0.758598 -0.00404237 -0.00586918)
(0.757514 -0.00381432 -0.00480892)
(0.755154 -0.00352468 -0.00172062)
(0.755696 -0.003531 -0.00141655)
(0.755696 -0.003531 -0.00141655)
(0.755392 -0.00346511 -0.000584811)
(0.754006 -0.0035279 0.00145594)
(0.75269 -0.00364036 0.00288022)
(0.752136 -0.00374743 0.00372776)
(0.75177 -0.0039089 0.00476209)
(0.80704 0.00145762 0.00659133)
(0.80704 0.00145762 0.00659133)
(0.822375 -0.00112971 0.00470877)
(0.822375 -0.00112971 0.00470877)
(0.82457 0.00210041 -0.000684157)
(0.82457 0.00210041 -0.000684157)
(0.834799 -0.00625744 -0.0151368)
(0.815787 -0.000270355 0.000972286)
(0.815787 -0.000270355 0.000972286)
(0.829711 -0.00123414 -0.00919571)
(0.818979 -0.0034546 -2.60923e-05)
(0.818979 -0.0034546 -2.60923e-05)
(0.82508 -0.00364655 -0.00433232)
(0.82242 -0.00317315 -0.0035816)
(0.818811 -0.000824499 -0.00137327)
(0.811158 0.00311988 0.00372593)
(0.812686 0.00508532 0.0081483)
(0.82102 0.00513689 0.00682844)
(0.82402 0.00464865 0.00466279)
(0.82402 0.00464865 0.00466279)
(0.828162 0.00333278 -0.000490758)
(0.832672 0.00143662 -0.00950235)
(0.832672 0.00143662 -0.00950235)
(0.834401 -0.000907876 -0.0134124)
(0.832943 -0.00268204 -0.015551)
(0.832943 -0.00268204 -0.015551)
(0.830294 -0.00365303 -0.0122417)
(0.825265 -0.00411091 -0.00632383)
(0.82559 -0.00465276 -0.00625096)
(0.82559 -0.00465276 -0.00625096)
(0.825567 -0.00493312 -0.00589983)
(0.824726 -0.00516996 -0.0050758)
(0.823254 -0.0050832 -0.00291113)
(0.822978 -0.00471684 -0.00183533)
(0.822978 -0.00471684 -0.00183533)
(0.822795 -0.00453303 -0.00118405)
(0.820931 -0.00423194 0.00157808)
(0.819127 -0.00432503 0.003542)
(0.818645 -0.00444773 0.00431141)
(0.818766 -0.00449701 0.00505178)
(0.89727 -0.000521665 0.00644474)
(0.89727 -0.000521665 0.00644474)
(0.911735 0.000540671 0.00606507)
(0.911735 0.000540671 0.00606507)
(0.91528 0.00512812 -0.0012877)
(0.91528 0.00512812 -0.0012877)
(0.924439 -0.00497889 -0.0144797)
(0.905648 -0.00188403 0.00175741)
(0.905648 -0.00188403 0.00175741)
(0.918859 -0.00297806 -0.0088057)
(0.906836 -0.00302343 0.00147072)
(0.906836 -0.00302343 0.00147072)
(0.914373 -0.00409595 -0.00571034)
(0.913189 -0.00362289 -0.00411795)
(0.910197 -0.00125884 -0.00265088)
(0.903692 0.00270429 0.00118024)
(0.902289 0.00543547 0.00925744)
(0.91134 0.00637382 0.00794691)
(0.915319 0.00660541 0.00495397)
(0.915319 0.00660541 0.00495397)
(0.918913 0.00535769 0.000203175)
(0.924125 0.00301329 -0.00980924)
(0.924125 0.00301329 -0.00980924)
(0.924529 0.000324063 -0.0124497)
(0.922477 -0.00252221 -0.0139272)
(0.922477 -0.00252221 -0.0139272)
(0.920246 -0.00451444 -0.0103879)
(0.915973 -0.00553426 -0.00521818)
(0.91598 -0.00612358 -0.00525112)
(0.91598 -0.00612358 -0.00525112)
(0.91567 -0.00624503 -0.00480726)
(0.916661 -0.00645896 -0.00560292)
(0.916321 -0.00642214 -0.00465414)
(0.916506 -0.00645276 -0.00394674)
(0.916506 -0.00645276 -0.00394674)
(0.91558 -0.00653421 -0.00223567)
(0.913551 -0.00660626 0.00112432)
(0.911734 -0.00656419 0.00329289)
(0.910425 -0.00629713 0.00473176)
(0.910139 -0.00602013 0.00549138)
(0.91063 -0.00103623 0.00605024)
(0.91063 -0.00103623 0.00605024)
(0.924404 0.000885689 0.00616478)
(0.924404 0.000885689 0.00616478)
(0.927519 0.0062885 -0.000538379)
(0.927519 0.0062885 -0.000538379)
(0.936681 -0.00436056 -0.0139166)
(0.918311 -0.00184167 0.00228045)
(0.918311 -0.00184167 0.00228045)
(0.956155 -0.00438016 -0.00797686)
(0.919138 -0.00300113 0.00160894)
(0.944206 -0.003206 0.00212856)
(0.927043 -0.00407059 -0.00622861)
(0.92579 -0.00348814 -0.00368535)
(0.923249 -0.00139882 -0.00297878)
(0.943671 0.00152982 0.000644648)
(0.915218 0.00536843 0.00934855)
(0.923994 0.00650212 0.00828532)
(0.954505 0.00748441 0.00508441)
(0.928436 0.00717934 0.00503413)
(0.931175 0.00622132 0.000894675)
(0.936459 0.00357553 -0.00894894)
(0.936459 0.00357553 -0.00894894)
(0.937219 0.000398834 -0.0119436)
(0.934503 -0.00256501 -0.0125)
(0.934503 -0.00256501 -0.0125)
(0.958712 -0.00469276 -0.00857012)
(0.928625 -0.00581917 -0.00451438)
(0.928861 -0.00628476 -0.00478685)
(0.928861 -0.00628476 -0.00478685)
(0.928835 -0.00657787 -0.00489453)
(0.930386 -0.00668818 -0.00605751)
(0.930672 -0.00667061 -0.00600836)
(0.929123 -0.00661191 -0.00340578)
(0.929123 -0.00661191 -0.00340578)
(0.928394 -0.006852 -0.0014766)
(0.927 -0.00701384 0.000962549)
(0.925742 -0.00686298 0.00305245)
(0.924927 -0.0068108 0.00391485)
(0.924225 -0.0065526 0.00475631)
(0.95023 -0.00226114 0.00530537)
(0.95023 -0.00226114 0.00530537)
(0.963192 0.00162659 0.00583755)
(0.963192 0.00162659 0.00583755)
(0.966622 0.00804113 -0.000880858)
(0.966622 0.00804113 -0.000880858)
(0.98801 -0.00317426 -0.0130768)
(0.958293 -0.00306462 0.00229331)
(0.958293 -0.00306462 0.00229331)
(0.968308 -0.00502144 -0.00741931)
(0.95634 -0.00363917 0.002756)
(0.95634 -0.00363917 0.002756)
(0.96595 -0.00378439 -0.00750947)
(0.965669 -0.00334146 -0.00383126)
(0.963388 -0.00163806 -0.00307585)
(0.957702 0.00117728 0.000175697)
(0.954781 0.00469504 0.00929807)
(0.962459 0.00714373 0.00875752)
(0.967684 0.00780106 0.00487773)
(0.967684 0.00780106 0.00487773)
(0.970547 0.00766449 0.000426422)
(0.975796 0.0050971 -0.00877986)
(0.975796 0.0050971 -0.00877986)
(0.975165 0.0015128 -0.0107563)
(0.973201 -0.00196009 -0.0106361)
(0.973201 -0.00196009 -0.0106361)
(0.97105 -0.00450819 -0.00741264)
(0.967269 -0.00595458 -0.0029423)
(0.967077 -0.00638045 -0.00371934)
(0.967077 -0.00638045 -0.00371934)
(0.968622 -0.00687979 -0.00529649)
(0.970147 -0.00739692 -0.00649962)
(0.970935 -0.00779927 -0.00611334)
(0.968696 -0.00792259 -0.00321182)
(0.968696 -0.00792259 -0.00321182)
(0.966837 -0.00800368 -0.000475866)
(0.96693 -0.00783501 0.000693862)
(0.966628 -0.00763558 0.00226647)
(0.965573 -0.00751084 0.00362722)
(0.965372 -0.00743808 0.00373511)
(0.978699 -0.00397483 0.0027751)
(0.99281 -0.00524516 0.00174731)
(1.0035 0.00407416 0.00397341)
(1.0035 0.00407416 0.00397341)
(0.993122 0.00996773 -0.00177131)
(0.993122 0.00996773 -0.00177131)
(1.00041 -0.00300315 -0.0123191)
(0.985039 -0.00396188 0.00315202)
(0.985039 -0.00396188 0.00315202)
(0.993646 -0.00537566 -0.00639185)
(0.993232 -0.00441995 0.00483712)
(0.993232 -0.00441995 0.00483712)
(0.991901 -0.00368766 -0.00749567)
(0.992649 -0.00360126 -0.00358153)
(1.00401 -0.00186074 -0.00269118)
(1.00006 0.000432776 -0.000712156)
(0.981932 0.00360036 0.00889808)
(1.00141 0.00634274 0.00891958)
(1.00697 0.00827887 0.00455296)
(1.00697 0.00827887 0.00455296)
(0.995428 0.0084114 0.000634369)
(1.0011 0.00631151 -0.00771366)
(1.01347 0.00643283 -0.00702019)
(0.999682 0.00229974 -0.00876562)
(0.998285 -0.00142217 -0.00832666)
(0.998285 -0.00142217 -0.00832666)
(0.996388 -0.00429009 -0.00541346)
(1.00577 -0.00540822 -0.00175119)
(1.00669 -0.00605356 -0.00319504)
(0.993256 -0.00613806 -0.00314228)
(0.995136 -0.00676364 -0.00551016)
(1.01095 -0.00732998 -0.00700291)
(1.01066 -0.00785978 -0.00473008)
(1.00871 -0.00803796 -0.0027053)
(0.995842 -0.00821051 -0.0026486)
(0.993767 -0.00815985 -0.000413914)
(0.993247 -0.0080664 0.000927842)
(1.00648 -0.0080177 0.00151936)
(1.0068 -0.0077533 0.00211346)
(0.994349 -0.00757221 0.00247129)
(1.00646 -0.00605318 0.0012088)
(1.02009 -0.0066296 0.000770339)
(1.01664 0.00443075 0.00339329)
(1.01664 0.00443075 0.00339329)
(1.01795 0.0116005 -0.00116966)
(1.02996 0.0119697 -0.000549709)
(1.0396 -0.00222136 -0.0112548)
(1.02621 -0.00450444 0.00356644)
(1.01263 -0.00439051 0.00368822)
(1.01844 -0.00580891 -0.00478316)
(1.01798 -0.00441504 0.00594468)
(1.00603 -0.00436048 0.00504636)
(1.01772 -0.0037035 -0.00712461)
(1.01997 -0.00358701 -0.00452739)
(1.018 -0.00198778 -0.00353435)
(1.01375 -0.000142627 -0.000488183)
(1.00941 0.00203937 0.00797957)
(1.02692 0.00547319 0.00778771)
(1.02029 0.00853838 0.00410911)
(1.02029 0.00853838 0.00410911)
(1.02141 0.00920205 -0.000597531)
(1.0254 0.00661883 -0.00578008)
(1.0254 0.00661883 -0.00578008)
(1.02442 0.00259884 -0.0067509)
(1.02371 -0.00127474 -0.00582102)
(1.02371 -0.00127474 -0.00582102)
(1.02229 -0.00377235 -0.0043912)
(1.01896 -0.00516526 -0.00149394)
(1.02012 -0.00574731 -0.00369275)
(1.02012 -0.00574731 -0.00369275)
(1.02103 -0.00654773 -0.0048792)
(1.02449 -0.00720627 -0.00678981)
(1.02337 -0.00773426 -0.00465819)
(1.02171 -0.00802423 -0.00229315)
(1.02171 -0.00802423 -0.00229315)
(1.02027 -0.00818532 0.000465473)
(1.02009 -0.00819564 0.000878121)
(1.02022 -0.00800274 0.00103026)
(1.02014 -0.00780859 0.00144147)
(1.02031 -0.00759562 0.00147778)
(1.02119 -0.00727916 0.000289598)
(1.02119 -0.00727916 0.000289598)
(1.02872 0.00549252 0.0038004)
(1.02872 0.00549252 0.0038004)
(1.02901 0.0122253 0.000289078)
(1.02901 0.0122253 0.000289078)
(1.03926 -0.00221993 -0.0100178)
(1.0265 -0.00436528 0.00359971)
(1.0265 -0.00436528 0.00359971)
(1.03047 -0.00547718 -0.00277158)
(1.01735 -0.00426874 0.00699994)
(1.01735 -0.00426874 0.00699994)
(1.03006 -0.00273943 -0.00543614)
(1.03338 -0.00335771 -0.00505321)
(1.03208 -0.00139197 -0.00346478)
(1.02876 -0.00131853 -0.000637918)
(1.03904 -9.37521e-05 0.00476548)
(1.02643 0.00485318 0.0072941)
(1.03415 0.00878735 0.0019282)
(1.03415 0.00878735 0.0019282)
(1.04648 0.00974656 -6.6313e-05)
(1.04773 0.00689238 -0.0026548)
(1.03596 0.00703739 -0.00356779)
(1.04785 0.00184713 -0.00251175)
(1.04788 -0.000593074 -0.00377751)
(1.03529 -0.00114194 -0.00394329)
(1.04749 -0.00284525 -0.00375669)
(1.03219 -0.00431263 -0.00204627)
(1.03183 -0.00569852 -0.00219152)
(1.03183 -0.00569852 -0.00219152)
(1.03572 -0.00645035 -0.00497935)
(1.04914 -0.00760981 -0.00509158)
(1.03598 -0.00796721 -0.00413142)
(1.03509 -0.00809009 -0.00210235)
(1.03509 -0.00809009 -0.00210235)
(1.0457 -0.00780204 0.000272404)
(1.04549 -0.0076436 0.000762752)
(1.03363 -0.00778576 0.000356599)
(1.03321 -0.00761089 0.000814014)
(1.03216 -0.00747653 0.00169345)
(1.048 -0.00871903 0.00137823)
(1.048 -0.00871903 0.00137823)
(1.0545 0.00630612 0.0022478)
(1.0545 0.00630612 0.0022478)
(1.05194 0.0120119 0.00214292)
(1.05105 0.0117049 0.00276713)
(1.06234 -0.00219558 -0.00792922)
(1.0524 -0.00429656 0.00317155)
(1.05294 -0.00387074 0.00275157)
(1.05391 -0.00504224 -0.000285167)
(1.04424 -0.00314652 0.0073563)
(1.04357 -0.00336135 0.00727418)
(1.05512 -0.000934758 -0.00468545)
(1.05998 -0.00239584 -0.00591859)
(1.05753 -0.00055624 -0.00290326)
(1.05809 -0.00226939 -0.00148074)
(1.05184 -0.000739536 0.00428277)
(1.05257 0.00321195 0.00489209)
(1.05894 0.00907519 -0.000345844)
(1.05894 0.00907519 -0.000345844)
(1.05918 0.00933838 -0.000135964)
(1.05948 0.0060299 -0.00106499)
(1.05948 0.0060299 -0.00106499)
(1.05957 0.00237046 -0.0021549)
(1.06049 0.000224383 -0.00358556)
(1.06049 0.000224383 -0.00358556)
(1.05989 -0.00225263 -0.00356834)
(1.05871 -0.00426664 -0.00258053)
(1.05806 -0.00538491 -0.00123304)
(1.05806 -0.00538491 -0.00123304)
(1.06069 -0.00677706 -0.00365329)
(1.06154 -0.00729792 -0.00443512)
(1.06098 -0.00787623 -0.00386558)
(1.05933 -0.00800279 -0.00232567)
(1.05933 -0.00800279 -0.00232567)
(1.05769 -0.00783234 -0.000375205)
(1.05671 -0.00830005 -4.96241e-05)
(1.05702 -0.00783107 0.00024592)
(1.05815 -0.00723777 0.000720111)
(1.05752 -0.00711505 0.0014187)
(1.06273 -0.00890661 0.00116086)
(1.06273 -0.00890661 0.00116086)
(1.06599 0.00794437 0.00166948)
(1.06618 0.00789323 0.00125354)
(1.0622 0.0109591 0.00332835)
(1.0622 0.0109591 0.00332835)
(1.07274 -0.00118057 -0.00599979)
(1.06511 -0.00285522 0.00209672)
(1.06511 -0.00285522 0.00209672)
(1.06594 -0.00367899 0.000634841)
(1.0573 -0.00318449 0.00760234)
(1.0577 -0.0019444 0.00774456)
(1.06791 -0.000530304 -0.00375864)
(1.07317 -0.00194972 -0.00755369)
(1.07101 -0.000635279 -0.00292482)
(1.07021 -0.0016065 -0.00114918)
(1.06451 -0.00270215 0.00327464)
(1.06446 0.00180948 0.00378203)
(1.07076 0.00546355 -0.00162514)
(1.07076 0.00546355 -0.00162514)
(1.07103 0.00608422 0.00023709)
(1.07049 0.00490281 -0.000510233)
(1.07049 0.00490281 -0.000510233)
(1.06969 0.00370401 -0.000967731)
(1.07151 0.00162659 -0.00274799)
(1.07151 0.00162659 -0.00274799)
(1.07168 -0.000702938 -0.00302061)
(1.07069 -0.00237083 -0.00112393)
(1.0716 -0.00540143 -0.00184897)
(1.0716 -0.00540143 -0.00184897)
(1.07272 -0.00675008 -0.00301756)
(1.0737 -0.00750734 -0.00412282)
(1.07193 -0.008207 -0.00301498)
(1.06989 -0.00856681 -0.00147456)
(1.06989 -0.00856681 -0.00147456)
(1.06885 -0.00874589 -0.000633755)
(1.06823 -0.00868077 5.50346e-05)
(1.06828 -0.00844374 1.11268e-07)
(1.06804 -0.00818745 0.000401661)
(1.06737 -0.00795255 0.00152922)
(1.07622 -0.00514146 0.000555643)
(1.07622 -0.00514146 0.000555643)
(1.07824 0.0077588 0.000813131)
(1.07824 0.0077588 0.000813131)
(1.07331 0.00624194 0.00447371)
(1.0731 0.0069589 0.00404094)
(1.08321 -0.00104923 -0.00490865)
(1.07654 -0.00432095 0.00076451)
(1.07654 -0.00432095 0.00076451)
(1.07727 -0.00339739 0.00123129)
(1.06933 -0.00164373 0.00775502)
(1.06933 -0.00164373 0.00775502)
(1.08007 3.96707e-08 -0.00247439)
(1.08593 0.000127417 -0.00773986)
(1.08289 -0.00080987 -0.00299202)
(1.08077 -0.000295987 -0.00134152)
(1.07503 -0.000123427 0.00407167)
(1.07692 0.00254326 0.00237887)
(1.08182 0.00342318 -0.0020519)
(1.08182 0.00342318 -0.0020519)
(1.08118 0.00474277 -0.000889167)
(1.08119 0.00434022 -0.000353072)
(1.08119 0.00434022 -0.000353072)
(1.08065 0.00371753 -0.000304504)
(1.08235 0.00267349 -0.00201235)
(1.08235 0.00267349 -0.00201235)
(1.08365 0.00054535 -0.00303695)
(1.08144 -0.00203465 -0.000742736)
(1.08268 -0.00433416 -0.00240394)
(1.08204 -0.00375789 -0.00260571)
(1.0824 -0.00593484 -0.00256824)
(1.08329 -0.0068077 -0.00354109)
(1.08203 -0.00709662 -0.00218122)
(1.0808 -0.00746001 -0.000998423)
(1.0808 -0.00746001 -0.000998423)
(1.07937 -0.00614137 0.000352634)
(1.07867 -0.00719294 0.000733099)
(1.07841 -0.00687574 0.000814361)
(1.07842 -0.00659854 0.000610099)
(1.07741 -0.00627912 0.00163044)
(1.08839 -0.00429213 0.000530695)
(1.09027 -0.00327402 -0.000674534)
(1.08941 0.00562659 -0.000536877)
(1.08899 0.0074304 7.03766e-06)
(1.08404 0.00573588 0.00452419)
(1.08507 0.00490011 0.00438779)
(1.09156 -0.000152908 -0.00213573)
(1.08885 -0.00466063 0.000217403)
(1.08964 -0.00348648 -0.000422225)
(1.08883 -0.00290396 0.00274758)
(1.08014 0.0007599 0.00795312)
(1.08014 0.0007599 0.00795312)
(1.0909 0.00492357 -0.00215053)
(1.09712 0.00355018 -0.00738304)
(1.09224 -0.0010193 -0.00238449)
(1.09047 0.000237136 -0.0012949)
(1.08521 0.00140065 0.00352528)
(1.08835 0.00575688 0.000961684)
(1.09183 0.00626537 -0.00217674)
(1.09187 0.0068247 -0.00233251)
(1.0917 0.0059395 -0.00141183)
(1.0911 0.00422168 -0.00047978)
(1.0911 0.00422168 -0.00047978)
(1.0919 0.00366178 -0.00109344)
(1.0919 0.00228464 -0.00179888)
(1.0919 0.00228464 -0.00179888)
(1.09288 0.00081545 -0.00251376)
(1.09052 -0.00155509 -0.000230841)
(1.09311 -0.00339153 -0.00277821)
(1.09311 -0.00339153 -0.00277821)
(1.09269 -0.00260849 -0.00210453)
(1.09267 -0.00430366 -0.00253921)
(1.09159 -0.00453991 -0.00148825)
(1.09065 -0.00449592 -0.000695234)
(1.09065 -0.00449592 -0.000695234)
(1.08955 -0.00435419 0.000362425)
(1.08971 -0.00383484 7.24243e-05)
(1.089 -0.0029786 0.000575852)
(1.0878 -0.00249911 0.00156877)
(1.08668 -0.00206385 0.00251619)
(1.09972 -0.00329502 -0.0014716)
(1.09972 -0.00329502 -0.0014716)
(1.09817 0.00358555 -0.000840643)
(1.09817 0.00358555 -0.000840643)
(1.0933 0.00340519 0.00467058)
(1.0939 0.00199307 0.00398008)
(1.09993 -0.00179018 -0.00073388)
(1.09903 -0.00225347 -0.00180632)
(1.09903 -0.00225347 -0.00180632)
(1.0977 -0.00213293 0.0030081)
(1.08987 0.000576289 0.00554156)
(1.08987 0.000576289 0.00554156)
(1.09976 0.00708039 -0.0022141)
(1.10501 0.00484766 -0.00612633)
(1.10139 -0.00333135 -0.00269705)
(1.0982 -0.00187127 -0.00119497)
(1.09439 0.00200628 0.00203112)
(1.09726 0.00592224 0.000472339)
(1.10071 0.00640209 -0.00257373)
(1.10071 0.00640209 -0.00257373)
(1.09984 0.00557833 -0.000813606)
(1.09867 0.00465366 -8.71414e-05)
(1.09867 0.00465366 -8.71414e-05)
(1.10033 0.00366241 -0.0013217)
(1.10076 0.00270884 -0.00200507)
(1.10076 0.00270884 -0.00200507)
(1.09998 0.00145053 -0.00171016)
(1.09843 0.000611048 6.7393e-05)
(1.10142 -0.000237131 -0.00215436)
(1.10142 -0.000237131 -0.00215436)
(1.10142 -0.00128474 -0.0021282)
(1.1008 -0.00187338 -0.00173709)
(1.10006 -0.00202638 -0.00114999)
(1.09892 -0.00173953 -0.000162273)
(1.09892 -0.00173953 -0.000162273)
(1.09852 -0.00151359 -0.00022947)
(1.09784 -0.00138593 0.000135073)
(1.09719 -0.00137099 0.00056883)
(1.09541 -0.00103482 0.00227943)
(1.09479 -0.000753632 0.00309276)
(1.10078 -0.0021912 -0.00220264)
(1.10078 -0.0021912 -0.00220264)
(1.09783 0.00311746 -0.00183012)
(1.09783 0.00311746 -0.00183012)
(1.09458 -0.000594285 0.00360953)
(1.09458 -0.000594285 0.00360953)
(1.09946 -0.000478405 -6.39977e-05)
(1.09953 -0.0026068 -0.00331127)
(1.09953 -0.0026068 -0.00331127)
(1.0996 -0.00231734 0.00308661)
(1.09008 0.00130844 0.00499267)
(1.09008 0.00130844 0.00499267)
(1.0991 0.00941956 -0.0018387)
(1.10422 0.00666534 -0.00514685)
(1.10149 -0.00230432 -0.00239271)
(1.09774 -0.00337514 -0.00124736)
(1.09454 -0.000313236 0.000497238)
(1.09724 0.00548786 -0.000314547)
(1.10046 0.00686969 -0.00193676)
(1.10046 0.00686969 -0.00193676)
(1.10066 0.0051201 -0.00103237)
(1.09825 0.00509831 0.0010055)
(1.09825 0.00509831 0.0010055)
(1.10112 0.00396248 -0.00191184)
(1.10063 0.00179536 -0.00149424)
(1.10063 0.00179536 -0.00149424)
(1.09966 0.00134413 -0.00136845)
(1.09904 0.00123333 0.000104019)
(1.10006 0.000469419 -0.00150665)
(1.10006 0.000469419 -0.00150665)
(1.10218 -0.000279717 -0.00281867)
(1.10082 -0.00102787 -0.00113085)
(1.09995 -0.00123276 -0.000192714)
(1.09905 -0.00146422 0.000141249)
(1.09905 -0.00146422 0.000141249)
(1.09914 -0.00161682 -0.000201385)
(1.09775 -0.00170525 0.000654007)
(1.09651 -0.00144492 0.00191707)
(1.09618 -0.00122224 0.00257212)
(1.09574 -0.00100226 0.0031826)
(1.1072 0.000954345 -0.00200407)
(1.1072 0.000954345 -0.00200407)
(1.1041 0.00150317 -0.00339738)
(1.1041 0.00150317 -0.00339738)
(1.10268 -0.00370759 0.0016114)
(1.10268 -0.00370759 0.0016114)
(1.10473 0.00216455 0.0014441)
(1.10506 -0.000976363 -0.00360813)
(1.10506 -0.000976363 -0.00360813)
(1.10949 -0.00171205 0.00390925)
(1.09661 0.00259613 0.00361465)
(1.09661 0.00259613 0.00361465)
(1.10508 0.0126766 -0.0022601)
(1.10934 0.0087369 -0.00368371)
(1.10783 -0.00119435 -0.00131128)
(1.10382 -0.00408319 -0.000457949)
(1.10073 -0.00108701 -0.00147556)
(1.1032 0.00456898 -0.00261281)
(1.1073 0.00485592 -0.000949781)
(1.1073 0.00485592 -0.000949781)
(1.10661 0.00498862 0.000534534)
(1.10538 0.00299622 0.00179827)
(1.10538 0.00299622 0.00179827)
(1.10707 0.00256043 -0.00156823)
(1.10705 0.00166596 -0.00185551)
(1.10705 0.00166596 -0.00185551)
(1.10588 0.00135805 -0.00167082)
(1.10543 0.00115254 -0.000336231)
(1.10597 0.000880085 -0.000692899)
(1.10597 0.000880085 -0.000692899)
(1.10771 0.000691797 -0.00223357)
(1.10734 0.000116131 -0.00109196)
(1.10642 -0.000469741 0.000321306)
(1.10584 -0.000797887 0.00153857)
(1.10584 -0.000797887 0.00153857)
(1.1057 -0.00122924 0.00177665)
(1.10478 -0.00155602 0.00236776)
(1.10441 -0.00156326 0.00272918)
(1.10387 -0.0014642 0.00294729)
(1.10284 -0.00141515 0.00359515)
(1.11037 0.00237066 -0.00163249)
(1.11037 0.00237066 -0.00163249)
(1.1071 0.000266231 -0.00374431)
(1.1071 0.000266231 -0.00374431)
(1.10683 -0.00584411 0.000966471)
(1.10683 -0.00584411 0.000966471)
(1.10796 0.0026232 0.00177616)
(1.10854 4.12678e-05 -0.00389443)
(1.10854 4.12678e-05 -0.00389443)
(1.11384 -0.00194021 0.00501692)
(1.10084 0.00256569 0.00242455)
(1.10084 0.00256569 0.00242455)
(1.10862 0.0123244 -0.00219177)
(1.11232 0.00907238 -0.00294126)
(1.11126 -0.00123471 -0.000571347)
(1.10716 -0.00469076 -0.000460066)
(1.10432 5.46541e-05 -0.00228442)
(1.10599 0.00437954 -0.00368709)
(1.1112 0.00447006 -0.00105853)
(1.1112 0.00447006 -0.00105853)
(1.10988 0.00327828 0.0014732)
(1.10967 0.00137722 0.00190889)
(1.10967 0.00137722 0.00190889)
(1.1099 0.00142772 -0.00195725)
(1.11061 0.00126125 -0.00161442)
(1.11061 0.00126125 -0.00161442)
(1.10959 0.000583255 -0.00131458)
(1.10948 0.00066959 -0.000905127)
(1.10956 0.000396811 -0.000626522)
(1.10956 0.000396811 -0.000626522)
(1.11075 0.000150304 -0.0022466)
(1.11074 -0.000531193 -0.000619871)
(1.11034 -0.000630986 0.000673128)
(1.10928 -0.000721502 0.0021123)
(1.10928 -0.000721502 0.0021123)
(1.10939 -0.000747889 0.00245009)
(1.10892 -0.000724313 0.00255951)
(1.10871 -0.000688927 0.00288664)
(1.10791 -0.000656811 0.00316713)
(1.10682 -0.000634165 0.00347565)
(1.10968 0.00321498 -0.00128195)
(1.10968 0.00321498 -0.00128195)
(1.10693 0.000194822 -0.00405271)
(1.10693 0.000194822 -0.00405271)
(1.10706 -0.0060567 0.000746053)
(1.10706 -0.0060567 0.000746053)
(1.10761 0.00334875 0.00121447)
(1.10817 0.000952719 -0.00387065)
(1.10817 0.000952719 -0.00387065)
(1.11415 -0.00112396 0.00563088)
(1.10125 0.00247658 0.00165991)
(1.10125 0.00247658 0.00165991)
(1.10821 0.0119382 -0.00213501)
(1.11175 0.00774419 -0.00231738)
(1.11123 -0.00251216 0.000279121)
(1.10723 -0.0041797 -0.000385995)
(1.10408 0.000334616 -0.00282314)
(1.10579 0.00455606 -0.00413326)
(1.11117 0.00464278 -0.000825301)
(1.11117 0.00464278 -0.000825301)
(1.10966 0.00343905 0.00198212)
(1.10985 0.00221223 0.00188551)
(1.10985 0.00221223 0.00188551)
(1.11 0.000901311 -0.00202347)
(1.11032 0.000821759 -0.00175665)
(1.11032 0.000821759 -0.00175665)
(1.10957 0.000577701 -0.00139201)
(1.10924 0.000739098 -0.0010941)
(1.10994 0.000985401 -0.000834174)
(1.10994 0.000985401 -0.000834174)
(1.11072 0.000922839 -0.0016094)
(1.11116 0.00073172 -0.000383194)
(1.11028 0.000315263 0.000789598)
(1.10915 0.000118153 0.002478)
(1.10915 0.000118153 0.002478)
(1.10935 9.34198e-05 0.00264905)
(1.10906 2.70873e-05 0.00301841)
(1.10877 -2.29997e-05 0.00335819)
(1.10819 -8.43494e-05 0.0034512)
(1.10693 5.69917e-05 0.00348881)
(1.10919 0.00336584 -0.000866725)
(1.10919 0.00336584 -0.000866725)
(1.10662 0.000437554 -0.00403378)
(1.10662 0.000437554 -0.00403378)
(1.1071 -0.00614164 0.000834622)
(1.1071 -0.00614164 0.000834622)
(1.10739 0.00309464 0.000645128)
(1.10803 0.00125286 -0.00410522)
(1.10803 0.00125286 -0.00410522)
(1.11388 -0.000263262 0.00653198)
(1.10168 0.00249595 0.00132129)
(1.10168 0.00249595 0.00132129)
(1.108 0.0112879 -0.00192797)
(1.11146 0.00687529 -0.00170096)
(1.11141 -0.00283629 0.00088513)
(1.10693 -0.00370585 -0.000593698)
(1.10374 0.000278619 -0.00306447)
(1.10548 0.00459122 -0.00426716)
(1.11119 0.00438932 -0.000599261)
(1.11119 0.00438932 -0.000599261)
(1.1098 0.00326587 0.00249232)
(1.1101 0.00294428 0.0018772)
(1.1101 0.00294428 0.0018772)
(1.10989 0.00125556 -0.00169786)
(1.10998 0.00055008 -0.00211353)
(1.10998 0.00055008 -0.00211353)
(1.1095 0.000880145 -0.00153006)
(1.10934 0.00082583 -0.00136319)
(1.11003 0.00138281 -0.000977769)
(1.11003 0.00138281 -0.000977769)
(1.11071 0.0013748 -0.00123377)
(1.11129 0.00120033 -0.000289431)
(1.1104 0.000606144 0.00113205)
(1.10899 0.000204108 0.00287963)
(1.10899 0.000204108 0.00287963)
(1.10931 -2.21451e-05 0.00277038)
(1.10938 0.000152374 0.00305666)
(1.10889 0.000254318 0.00358673)
(1.10821 0.000254902 0.00359069)
(1.10755 0.00017298 0.00357644)
(0.37195 -0.00268881 0.0057856)
(0.371172 -0.00329077 0.00739574)
(0.37307 -0.00342191 0.00582896)
(0.375959 -0.00376769 0.000413956)
(0.375841 -0.00363246 -0.000384956)
(0.374558 -0.00294921 -0.000801563)
(0.369873 -0.00216132 0.00454439)
(0.368606 -0.00123568 0.00571074)
(0.370426 -0.000476316 0.00355656)
(0.371193 -3.04773e-05 0.00256393)
(0.372924 0.000529823 0.00238196)
(0.378938 0.000633324 -0.00137404)
(0.383936 0.000336988 -0.00486063)
(0.377048 0.000456973 0.00153226)
(0.372928 0.000542174 0.00582619)
(0.372057 0.000284985 0.0075192)
(0.370645 4.64075e-05 0.00836156)
(0.373609 -0.000419678 0.00359192)
(0.374972 -0.00110431 0.00128737)
(0.378183 -0.00201003 -0.000972471)
(0.6621 -0.00325674 0.00572633)
(0.661205 -0.00356143 0.00739705)
(0.663037 -0.00384089 0.00610236)
(0.665923 -0.00381019 0.0015933)
(0.665837 -0.00389773 -0.000154681)
(0.664995 -0.00344168 -0.00121923)
(0.659465 -0.00262216 0.00490421)
(0.65852 -0.00169345 0.00578599)
(0.659918 -0.000714504 0.00468271)
(0.661139 -0.000288956 0.00253603)
(0.663041 -0.000144649 0.00220745)
(0.669025 0.000119665 -0.00152411)
(0.673797 -0.000189474 -0.00478467)
(0.670465 -0.000144101 -0.00194688)
(0.662913 5.5692e-05 0.00575141)
(0.661509 -4.59672e-05 0.00794377)
(0.660581 -8.58251e-05 0.00822256)
(0.663966 -0.000661641 0.00243371)
(0.664222 -0.00109418 0.00197471)
(0.66748 -0.0018795 -0.000429633)
(0.751374 -0.00404186 0.0056475)
(0.750644 -0.00406815 0.00719953)
(0.752219 -0.0041906 0.0063336)
(0.754911 -0.00406591 0.00105524)
(0.754208 -0.00410152 -0.000255853)
(0.753412 -0.00393467 -0.00070914)
(0.74768 -0.0030166 0.00617647)
(0.747674 -0.0022376 0.00567228)
(0.749029 -0.00158328 0.00463883)
(0.750099 -0.00108571 0.00252668)
(0.752391 -0.000735069 0.00167555)
(0.758025 -0.000711041 -0.0016729)
(0.763076 -0.00049306 -0.00521173)
(0.75945 -0.000718267 -0.0020089)
(0.750206 -0.000637415 0.00805756)
(0.749581 -0.000643603 0.00866272)
(0.749227 -0.00087559 0.00828133)
(0.75107 -0.000862616 0.00466057)
(0.752353 -0.000906786 0.00258111)
(0.755707 -0.00133032 8.70963e-05)
(0.818368 -0.00451077 0.00582623)
(0.817947 -0.00462514 0.00712914)
(0.820244 -0.00482272 0.00579133)